:RELAXSTEP: 11
:E(Ha): -3.879742865338765E+03
:R(Bohr):
  15.713800589291310    3.015147283283757   28.230304009880189
   5.238093516479936    3.014859240082454   28.230200096881426
  10.476475422547022    3.015103308441650   28.230332899341093
   2.618746996293866    7.550472590257510   28.230125804577238
   7.857439068146292    7.550412073901209   28.230223170283615
  13.095100628710911    7.550585345516740   28.230237806820838
  15.713766480325733    9.037148344913373   32.607580828865906
   5.238226422122217    9.036954404124547   32.607931683178315
  10.476367122913507    9.037132604328075   32.607411733124742
   2.618765805266182    4.499637056677338   32.611875808531281
   7.857504997286617    4.499640303806506   32.611857759451553
  13.095038590139206    4.499784085980686   32.611424423103195
   2.619466748590458    1.509491092977954   36.901034688530686
   7.856778768513585    1.509605732018503   36.900996370776276
  13.094679334396817    1.509659398004106   36.900382404854014
   0.000156755075377    6.051222092833984   36.901120790784503
   5.238223690914817    6.051182402223858   36.901770884173132
  10.475715519539497    6.051273808333288   36.901062019664870
   0.001140661106906    3.060939535529658   41.191473757233297
   5.238131757277334    3.061926950552412   41.191895337779485
  10.475411390788391    3.060384811267094   41.191558767752412
   2.619626849212325    7.597510122510666   41.191315633021389
   7.856358651386859    7.597676216577937   41.191288892914741
  13.095015407019750    7.597623801179221   41.190874039015092
   0.000351242291232    0.007403698717867   45.560902954143963
   5.238082143032996    0.007626563650526   45.560450815970725
  10.475687356614729    0.007470108018973   45.560880696954158
   2.619430470281181    4.545679431984643   45.570276000717492
   7.856663192718074    4.545781428165274   45.570344424023837
  13.095085151957283    4.545577630873255   45.570792451713039
:ISFD: 0
:ISRESET: 0
:STEP: 1
:DX:
   0.000628097298261
   0.005583728393705
  -0.005304682311809
  -0.000161713963553
   0.005751553235186
  -0.004571413201269
  -0.000465297345594
   0.005617945266404
  -0.005508445336300
   0.000303635588930
  -0.006170296299709
  -0.003301165510191
  -0.000476249270254
  -0.006211747380346
  -0.003445485852019
   0.000180752402111
  -0.006406766606129
  -0.004224479441330
   0.001471856660078
  -0.010392371001846
   0.026858027695269
  -0.000434539702516
  -0.010434865895744
   0.026568899910487
  -0.001068939749967
  -0.010590070374098
   0.026335918059381
   0.000913179296008
   0.009510552861629
   0.008257831830889
  -0.001440613994268
   0.009590121988884
   0.008060113538605
   0.000522167717708
   0.009828345322809
   0.008772693695775
  -0.000701132729765
  -0.020958849911615
  -0.025199174979271
  -0.000575786571631
  -0.020848326784233
  -0.025104538092663
   0.001470785237599
  -0.019885911862134
  -0.022996304147611
  -0.000761228355210
   0.021521768418936
  -0.015188608516404
  -0.000276882499137
   0.022028899083506
  -0.017142792611075
   0.000928189082535
   0.021478285033043
  -0.014894873431430
  -0.002317740184944
   0.009313870997740
   0.021494429810851
   0.000052969995498
   0.008661857631903
   0.022682265087411
   0.001961933252618
   0.010235818649031
   0.022137872196581
  -0.001084145762687
  -0.009673027211057
   0.000281217890631
   0.000769696036130
  -0.010279477204269
   0.000431626324414
   0.000550235191566
  -0.010760416216977
  -0.000123557386807
  -0.000135793816200
   0.004654425019590
   0.000582113312674
  -0.000211501082575
   0.004871850936073
   0.001071224791055
   0.000311868990924
   0.004577537756342
   0.000856510572937
  -0.000288835087202
  -0.003510954098482
  -0.008656265716908
   0.000213687252060
  -0.003548744157870
  -0.008907991790437
   0.000121346113479
  -0.003554735590273
  -0.009820966391459
   0.000006686501424
   0.000078716020362
  -0.004416869602235
  -0.000002866068992
   0.000078458024852
  -0.004393732855835
   0.000000308694212
   0.000086463950133
  -0.004397364021560
   0.000000475230955
   0.000129101256650
  -0.004475884298135
  -0.000000972868379
   0.000120723343531
  -0.004458329354140
   0.000002288143842
   0.000118256324647
  -0.004478371588561
  -0.000007901907250
  -0.004060914630857
  -0.017222408823081
   0.000019199785913
  -0.004065526121177
  -0.017226449753217
  -0.000007072297011
  -0.004054129545315
  -0.017198712404486
   0.000009649524460
  -0.004166910756698
  -0.018089739267239
   0.000009494728828
  -0.004165808851423
  -0.018067936382643
  -0.000018108277558
  -0.004158294916816
  -0.018066057037579
  -0.000016013917240
  -0.000184436672049
   0.000146123924672
   0.000059076128519
  -0.000187143440722
   0.000147887957304
  -0.000043657071179
  -0.000178009628686
   0.000190286233561
  -0.000060638799829
   0.000156625707757
   0.000312251208506
   0.000040646142057
   0.000152406183053
   0.000268961256687
   0.000024170875330
   0.000157835352153
   0.000311924532866
  -0.000091916548578
   0.004157443039676
   0.019780419694285
   0.000015537482461
   0.004140780511397
   0.019767014078575
   0.000066849873775
   0.004160468611848
   0.019753575576665
  -0.000062421602251
   0.003909068910757
   0.019282844705387
   0.000078796127633
   0.003905231944157
   0.019261800361051
  -0.000016179173150
   0.003911433764500
   0.019271213881908
  -0.000048258316852
   0.000087093882943
   0.002950303761615
  -0.000009059406286
   0.000092132715839
   0.002990151484823
   0.000052912102554
   0.000091727235922
   0.002929764948881
  -0.000051958981636
  -0.000101323683064
   0.001733364256545
   0.000043267889819
  -0.000103532581822
   0.001712133047086
   0.000007666004413
  -0.000107935951549
   0.001681834478291
  -0.000040037410217
  -0.000021522395929
  -0.003379989717711
   0.000021581673410
  -0.000027131606404
  -0.003362952075470
   0.000016899054142
  -0.000029274038686
  -0.003371554571796
  -0.000011396363649
   0.000089180051034
  -0.003261366768832
   0.000034660606140
   0.000094912361316
  -0.003250753236067
  -0.000023005573185
   0.000093575212792
  -0.003267347555724
  -0.000033826137040
  -0.002151777105025
  -0.001865580337416
   0.000019445278364
  -0.002155854441231
  -0.001861898119024
   0.000013430733167
  -0.002156007969406
  -0.001888756011809
  -0.000014671191916
  -0.002040247890321
  -0.001237253965478
   0.000034221513229
  -0.002042038932799
  -0.001251869348536
  -0.000018406295400
  -0.002040090763868
  -0.001267420508860
   0.000006952658219
   0.000341751422058
   0.000373628878812
  -0.000007421246316
   0.000346866869453
   0.000367360977897
   0.000001279505764
   0.000331756448335
   0.000322650186448
   0.000014969633613
  -0.000195772411930
   0.000059647667968
   0.000000282527537
  -0.000196525865134
   0.000104557534947
  -0.000016225951196
  -0.000202542593063
   0.000053875827511
   0.000038755939595
   0.001902022170865
  -0.000227231890456
   0.000008271384154
   0.001907559424707
  -0.000224062921760
  -0.000047498797327
   0.001904034284012
  -0.000215140999373
   0.000038925961858
   0.002259118302613
   0.000301927921576
  -0.000030842343845
   0.002262487715464
   0.000316446020555
  -0.000010129336427
   0.002265342996314
   0.000309985110889
   0.000009859747237
  -0.000214217564491
   0.004284158830323
   0.000017612714538
  -0.000217435034610
   0.004278479470898
  -0.000024146902069
  -0.000216054764589
   0.004278366495221
   0.000024095912454
   0.000032785681471
   0.004958329170684
  -0.000007639965447
   0.000039809636545
   0.004960807788294
  -0.000015997329385
   0.000035290800504
   0.004962956146279
   0.000295483496732
   0.001525417084246
  -0.032043623764356
   0.000031261886669
   0.001565046413547
  -0.031971645842052
  -0.000301079585133
   0.001495162343928
  -0.032075572821554
   0.000291289816424
   0.000076499162808
  -0.031334085772261
  -0.000257112389444
   0.000054314380114
  -0.031370455835678
  -0.000011747893033
   0.000044019858590
  -0.031442402509185
   0.000401982979851
  -0.018775746177006
  -0.012071987076460
  -0.000035837524008
  -0.018768703893882
  -0.012157265889265
  -0.000343110680562
  -0.018814557758244
  -0.012052424390092
   0.000352575916944
  -0.016341270679264
  -0.015009259241914
  -0.000380834216506
  -0.016361871742764
  -0.015021257919216
   0.000053471021451
  -0.016378342295890
  -0.014862491603367
  -0.000018248123671
  -0.001588147117268
  -0.005914613056966
  -0.000087268059963
  -0.001594186363113
  -0.005916471377851
   0.000220412171847
  -0.001521616890908
  -0.005484838149691
  -0.000014125928164
   0.002047831641428
  -0.004632542479662
  -0.000020747907463
   0.002123321923905
  -0.005006536176296
   0.000046490939964
   0.002058189980220
  -0.004612597028249
  -0.000552897482764
   0.017806498725734
   0.015519401094799
   0.000003637232611
   0.017421752616257
   0.015517584884478
   0.000254244930579
   0.018218064264444
   0.015522428070845
  -0.000182416001469
   0.015203565885175
   0.013517593672269
   0.000183594042761
   0.015193459522251
   0.013503706626182
   0.000029178459011
   0.015166078265561
   0.013602912375127
  -0.000071832360330
   0.000734501022142
   0.037658134529842
   0.000003783623836
   0.000726769829267
   0.037804387114193
   0.000088741737631
   0.000767380053167
   0.037637039965453
  -0.000076107974537
  -0.000713184908836
   0.034314016711939
   0.000097898737370
  -0.000698419358788
   0.034261988813789
  -0.000000680866629
  -0.000671825786847
   0.034120877075125
   0.000000000000000
   0.000000000000000
   0.000000000000000
   0.000000000000000
   0.000000000000000
   0.000000000000000
   0.000000000000000
   0.000000000000000
   0.000000000000000
   0.000000000000000
   0.000000000000000
   0.000000000000000
   0.000000000000000
   0.000000000000000
   0.000000000000000
   0.000000000000000
   0.000000000000000
   0.000000000000000
   0.000000000000000
   0.000000000000000
   0.000000000000000
   0.000000000000000
   0.000000000000000
   0.000000000000000
   0.000000000000000
   0.000000000000000
   0.000000000000000
   0.000000000000000
   0.000000000000000
   0.000000000000000
   0.000000000000000
   0.000000000000000
   0.000000000000000
   0.000000000000000
   0.000000000000000
   0.000000000000000
   0.000000000000000
   0.000000000000000
   0.000000000000000
   0.000000000000000
   0.000000000000000
   0.000000000000000
   0.000000000000000
   0.000000000000000
   0.000000000000000
   0.000000000000000
   0.000000000000000
   0.000000000000000
   0.000000000000000
   0.000000000000000
   0.000000000000000
   0.000000000000000
   0.000000000000000
   0.000000000000000
   0.000000000000000
   0.000000000000000
   0.000000000000000
   0.000000000000000
   0.000000000000000
   0.000000000000000
   0.000000000000000
   0.000000000000000
   0.000000000000000
   0.000000000000000
   0.000000000000000
   0.000000000000000
   0.000000000000000
   0.000000000000000
   0.000000000000000
   0.000000000000000
   0.000000000000000
   0.000000000000000
   0.000000000000000
   0.000000000000000
   0.000000000000000
   0.000000000000000
   0.000000000000000
   0.000000000000000
   0.000000000000000
   0.000000000000000
   0.000000000000000
   0.000000000000000
   0.000000000000000
   0.000000000000000
   0.000000000000000
   0.000000000000000
   0.000000000000000
   0.000000000000000
   0.000000000000000
   0.000000000000000
   0.000000000000000
   0.000000000000000
   0.000000000000000
   0.000000000000000
   0.000000000000000
   0.000000000000000
   0.000000000000000
   0.000000000000000
   0.000000000000000
   0.000000000000000
   0.000000000000000
   0.000000000000000
   0.000000000000000
   0.000000000000000
   0.000000000000000
   0.000000000000000
   0.000000000000000
   0.000000000000000
   0.000000000000000
   0.000000000000000
   0.000000000000000
   0.000000000000000
   0.000000000000000
   0.000000000000000
   0.000000000000000
   0.000000000000000
   0.000000000000000
   0.000000000000000
   0.000000000000000
   0.000000000000000
   0.000000000000000
   0.000000000000000
   0.000000000000000
   0.000000000000000
   0.000000000000000
   0.000000000000000
   0.000000000000000
   0.000000000000000
   0.000000000000000
   0.000000000000000
   0.000000000000000
   0.000000000000000
   0.000000000000000
   0.000000000000000
   0.000000000000000
   0.000000000000000
   0.000000000000000
   0.000000000000000
   0.000000000000000
   0.000000000000000
   0.000000000000000
   0.000000000000000
   0.000000000000000
   0.000000000000000
   0.000000000000000
   0.000000000000000
   0.000000000000000
   0.000000000000000
   0.000000000000000
   0.000000000000000
   0.000000000000000
   0.000000000000000
   0.000000000000000
   0.000000000000000
   0.000000000000000
   0.000000000000000
   0.000000000000000
   0.000000000000000
   0.000000000000000
   0.000000000000000
   0.000000000000000
   0.000000000000000
   0.000000000000000
   0.000000000000000
   0.000000000000000
   0.000000000000000
   0.000000000000000
   0.000000000000000
   0.000000000000000
   0.000000000000000
   0.000000000000000
   0.000000000000000
   0.000000000000000
   0.000000000000000
   0.000000000000000
   0.000000000000000
   0.000000000000000
   0.000000000000000
   0.000000000000000
   0.000000000000000
   0.000000000000000
   0.000000000000000
   0.000000000000000
   0.000000000000000
   0.000000000000000
   0.000000000000000
   0.000000000000000
   0.000000000000000
   0.000000000000000
   0.000000000000000
   0.000000000000000
   0.000000000000000
   0.000000000000000
   0.000000000000000
   0.000000000000000
   0.000000000000000
   0.000000000000000
   0.000000000000000
   0.000000000000000
   0.000000000000000
   0.000000000000000
   0.000000000000000
   0.000000000000000
   0.000000000000000
   0.000000000000000
   0.000000000000000
   0.000000000000000
   0.000000000000000
   0.000000000000000
   0.000000000000000
   0.000000000000000
   0.000000000000000
   0.000000000000000
   0.000000000000000
   0.000000000000000
   0.000000000000000
   0.000000000000000
   0.000000000000000
   0.000000000000000
   0.000000000000000
   0.000000000000000
   0.000000000000000
   0.000000000000000
   0.000000000000000
   0.000000000000000
   0.000000000000000
   0.000000000000000
   0.000000000000000
   0.000000000000000
   0.000000000000000
   0.000000000000000
   0.000000000000000
   0.000000000000000
   0.000000000000000
   0.000000000000000
   0.000000000000000
   0.000000000000000
   0.000000000000000
   0.000000000000000
   0.000000000000000
   0.000000000000000
   0.000000000000000
   0.000000000000000
   0.000000000000000
   0.000000000000000
   0.000000000000000
   0.000000000000000
   0.000000000000000
   0.000000000000000
   0.000000000000000
   0.000000000000000
   0.000000000000000
   0.000000000000000
   0.000000000000000
   0.000000000000000
   0.000000000000000
   0.000000000000000
   0.000000000000000
   0.000000000000000
   0.000000000000000
   0.000000000000000
   0.000000000000000
   0.000000000000000
   0.000000000000000
   0.000000000000000
   0.000000000000000
   0.000000000000000
   0.000000000000000
   0.000000000000000
   0.000000000000000
   0.000000000000000
   0.000000000000000
   0.000000000000000
   0.000000000000000
   0.000000000000000
   0.000000000000000
   0.000000000000000
   0.000000000000000
   0.000000000000000
   0.000000000000000
   0.000000000000000
   0.000000000000000
   0.000000000000000
   0.000000000000000
   0.000000000000000
   0.000000000000000
   0.000000000000000
   0.000000000000000
   0.000000000000000
   0.000000000000000
   0.000000000000000
   0.000000000000000
   0.000000000000000
   0.000000000000000
   0.000000000000000
   0.000000000000000
   0.000000000000000
   0.000000000000000
   0.000000000000000
   0.000000000000000
   0.000000000000000
   0.000000000000000
   0.000000000000000
   0.000000000000000
   0.000000000000000
   0.000000000000000
   0.000000000000000
   0.000000000000000
   0.000000000000000
   0.000000000000000
   0.000000000000000
   0.000000000000000
   0.000000000000000
   0.000000000000000
   0.000000000000000
   0.000000000000000
   0.000000000000000
   0.000000000000000
   0.000000000000000
   0.000000000000000
   0.000000000000000
   0.000000000000000
   0.000000000000000
   0.000000000000000
   0.000000000000000
   0.000000000000000
   0.000000000000000
   0.000000000000000
   0.000000000000000
   0.000000000000000
   0.000000000000000
   0.000000000000000
   0.000000000000000
   0.000000000000000
   0.000000000000000
   0.000000000000000
   0.000000000000000
   0.000000000000000
   0.000000000000000
   0.000000000000000
   0.000000000000000
   0.000000000000000
   0.000000000000000
   0.000000000000000
   0.000000000000000
   0.000000000000000
   0.000000000000000
   0.000000000000000
   0.000000000000000
   0.000000000000000
   0.000000000000000
   0.000000000000000
   0.000000000000000
   0.000000000000000
   0.000000000000000
   0.000000000000000
   0.000000000000000
   0.000000000000000
   0.000000000000000
   0.000000000000000
   0.000000000000000
   0.000000000000000
   0.000000000000000
   0.000000000000000
   0.000000000000000
   0.000000000000000
   0.000000000000000
   0.000000000000000
   0.000000000000000
   0.000000000000000
   0.000000000000000
   0.000000000000000
   0.000000000000000
   0.000000000000000
   0.000000000000000
   0.000000000000000
   0.000000000000000
   0.000000000000000
   0.000000000000000
   0.000000000000000
   0.000000000000000
   0.000000000000000
   0.000000000000000
   0.000000000000000
   0.000000000000000
   0.000000000000000
   0.000000000000000
   0.000000000000000
   0.000000000000000
   0.000000000000000
   0.000000000000000
   0.000000000000000
   0.000000000000000
   0.000000000000000
   0.000000000000000
   0.000000000000000
   0.000000000000000
   0.000000000000000
   0.000000000000000
   0.000000000000000
   0.000000000000000
   0.000000000000000
   0.000000000000000
   0.000000000000000
   0.000000000000000
   0.000000000000000
   0.000000000000000
   0.000000000000000
   0.000000000000000
   0.000000000000000
   0.000000000000000
   0.000000000000000
   0.000000000000000
   0.000000000000000
   0.000000000000000
   0.000000000000000
   0.000000000000000
   0.000000000000000
   0.000000000000000
   0.000000000000000
   0.000000000000000
   0.000000000000000
   0.000000000000000
   0.000000000000000
   0.000000000000000
   0.000000000000000
   0.000000000000000
   0.000000000000000
   0.000000000000000
   0.000000000000000
   0.000000000000000
   0.000000000000000
   0.000000000000000
   0.000000000000000
   0.000000000000000
   0.000000000000000
   0.000000000000000
   0.000000000000000
   0.000000000000000
   0.000000000000000
   0.000000000000000
   0.000000000000000
   0.000000000000000
   0.000000000000000
   0.000000000000000
   0.000000000000000
   0.000000000000000
   0.000000000000000
   0.000000000000000
   0.000000000000000
   0.000000000000000
   0.000000000000000
   0.000000000000000
   0.000000000000000
   0.000000000000000
   0.000000000000000
   0.000000000000000
   0.000000000000000
   0.000000000000000
   0.000000000000000
   0.000000000000000
   0.000000000000000
   0.000000000000000
   0.000000000000000
   0.000000000000000
   0.000000000000000
   0.000000000000000
   0.000000000000000
   0.000000000000000
   0.000000000000000
   0.000000000000000
   0.000000000000000
   0.000000000000000
   0.000000000000000
   0.000000000000000
   0.000000000000000
   0.000000000000000
   0.000000000000000
   0.000000000000000
   0.000000000000000
   0.000000000000000
   0.000000000000000
   0.000000000000000
   0.000000000000000
   0.000000000000000
   0.000000000000000
   0.000000000000000
   0.000000000000000
   0.000000000000000
   0.000000000000000
   0.000000000000000
   0.000000000000000
   0.000000000000000
   0.000000000000000
   0.000000000000000
   0.000000000000000
   0.000000000000000
   0.000000000000000
   0.000000000000000
   0.000000000000000
   0.000000000000000
   0.000000000000000
   0.000000000000000
   0.000000000000000
   0.000000000000000
   0.000000000000000
   0.000000000000000
   0.000000000000000
   0.000000000000000
   0.000000000000000
   0.000000000000000
   0.000000000000000
   0.000000000000000
   0.000000000000000
   0.000000000000000
   0.000000000000000
   0.000000000000000
   0.000000000000000
   0.000000000000000
   0.000000000000000
   0.000000000000000
   0.000000000000000
   0.000000000000000
   0.000000000000000
   0.000000000000000
   0.000000000000000
   0.000000000000000
   0.000000000000000
   0.000000000000000
   0.000000000000000
   0.000000000000000
   0.000000000000000
   0.000000000000000
   0.000000000000000
   0.000000000000000
   0.000000000000000
   0.000000000000000
   0.000000000000000
   0.000000000000000
   0.000000000000000
   0.000000000000000
   0.000000000000000
   0.000000000000000
   0.000000000000000
   0.000000000000000
   0.000000000000000
   0.000000000000000
   0.000000000000000
   0.000000000000000
   0.000000000000000
   0.000000000000000
   0.000000000000000
   0.000000000000000
   0.000000000000000
   0.000000000000000
   0.000000000000000
   0.000000000000000
   0.000000000000000
   0.000000000000000
   0.000000000000000
   0.000000000000000
   0.000000000000000
   0.000000000000000
   0.000000000000000
   0.000000000000000
   0.000000000000000
   0.000000000000000
   0.000000000000000
   0.000000000000000
   0.000000000000000
   0.000000000000000
   0.000000000000000
   0.000000000000000
   0.000000000000000
   0.000000000000000
   0.000000000000000
   0.000000000000000
   0.000000000000000
   0.000000000000000
   0.000000000000000
   0.000000000000000
   0.000000000000000
   0.000000000000000
   0.000000000000000
   0.000000000000000
   0.000000000000000
   0.000000000000000
   0.000000000000000
   0.000000000000000
   0.000000000000000
   0.000000000000000
   0.000000000000000
   0.000000000000000
   0.000000000000000
   0.000000000000000
   0.000000000000000
   0.000000000000000
   0.000000000000000
   0.000000000000000
   0.000000000000000
   0.000000000000000
   0.000000000000000
   0.000000000000000
   0.000000000000000
   0.000000000000000
   0.000000000000000
   0.000000000000000
   0.000000000000000
   0.000000000000000
   0.000000000000000
   0.000000000000000
   0.000000000000000
   0.000000000000000
   0.000000000000000
   0.000000000000000
   0.000000000000000
   0.000000000000000
   0.000000000000000
   0.000000000000000
   0.000000000000000
   0.000000000000000
   0.000000000000000
   0.000000000000000
   0.000000000000000
   0.000000000000000
   0.000000000000000
   0.000000000000000
   0.000000000000000
   0.000000000000000
   0.000000000000000
   0.000000000000000
   0.000000000000000
   0.000000000000000
   0.000000000000000
   0.000000000000000
   0.000000000000000
   0.000000000000000
   0.000000000000000
   0.000000000000000
   0.000000000000000
   0.000000000000000
   0.000000000000000
   0.000000000000000
   0.000000000000000
   0.000000000000000
   0.000000000000000
   0.000000000000000
   0.000000000000000
   0.000000000000000
   0.000000000000000
   0.000000000000000
   0.000000000000000
   0.000000000000000
   0.000000000000000
   0.000000000000000
   0.000000000000000
   0.000000000000000
   0.000000000000000
   0.000000000000000
   0.000000000000000
   0.000000000000000
   0.000000000000000
   0.000000000000000
   0.000000000000000
   0.000000000000000
   0.000000000000000
   0.000000000000000
   0.000000000000000
   0.000000000000000
   0.000000000000000
   0.000000000000000
   0.000000000000000
   0.000000000000000
   0.000000000000000
   0.000000000000000
   0.000000000000000
   0.000000000000000
   0.000000000000000
   0.000000000000000
   0.000000000000000
   0.000000000000000
   0.000000000000000
   0.000000000000000
   0.000000000000000
   0.000000000000000
   0.000000000000000
   0.000000000000000
   0.000000000000000
   0.000000000000000
   0.000000000000000
   0.000000000000000
   0.000000000000000
   0.000000000000000
   0.000000000000000
   0.000000000000000
   0.000000000000000
   0.000000000000000
   0.000000000000000
   0.000000000000000
   0.000000000000000
   0.000000000000000
   0.000000000000000
   0.000000000000000
   0.000000000000000
   0.000000000000000
   0.000000000000000
   0.000000000000000
   0.000000000000000
   0.000000000000000
   0.000000000000000
   0.000000000000000
   0.000000000000000
   0.000000000000000
   0.000000000000000
   0.000000000000000
   0.000000000000000
   0.000000000000000
   0.000000000000000
   0.000000000000000
   0.000000000000000
   0.000000000000000
   0.000000000000000
   0.000000000000000
   0.000000000000000
   0.000000000000000
   0.000000000000000
   0.000000000000000
   0.000000000000000
   0.000000000000000
   0.000000000000000
   0.000000000000000
   0.000000000000000
   0.000000000000000
   0.000000000000000
   0.000000000000000
   0.000000000000000
   0.000000000000000
   0.000000000000000
   0.000000000000000
   0.000000000000000
   0.000000000000000
   0.000000000000000
   0.000000000000000
   0.000000000000000
   0.000000000000000
   0.000000000000000
   0.000000000000000
   0.000000000000000
   0.000000000000000
   0.000000000000000
   0.000000000000000
   0.000000000000000
   0.000000000000000
   0.000000000000000
   0.000000000000000
   0.000000000000000
   0.000000000000000
   0.000000000000000
   0.000000000000000
   0.000000000000000
   0.000000000000000
   0.000000000000000
   0.000000000000000
   0.000000000000000
   0.000000000000000
   0.000000000000000
   0.000000000000000
   0.000000000000000
   0.000000000000000
   0.000000000000000
   0.000000000000000
   0.000000000000000
   0.000000000000000
   0.000000000000000
   0.000000000000000
   0.000000000000000
   0.000000000000000
   0.000000000000000
   0.000000000000000
   0.000000000000000
   0.000000000000000
   0.000000000000000
   0.000000000000000
   0.000000000000000
   0.000000000000000
   0.000000000000000
   0.000000000000000
   0.000000000000000
   0.000000000000000
   0.000000000000000
   0.000000000000000
   0.000000000000000
   0.000000000000000
   0.000000000000000
   0.000000000000000
   0.000000000000000
   0.000000000000000
   0.000000000000000
   0.000000000000000
   0.000000000000000
   0.000000000000000
   0.000000000000000
   0.000000000000000
   0.000000000000000
   0.000000000000000
   0.000000000000000
   0.000000000000000
   0.000000000000000
   0.000000000000000
   0.000000000000000
   0.000000000000000
   0.000000000000000
   0.000000000000000
   0.000000000000000
   0.000000000000000
   0.000000000000000
   0.000000000000000
   0.000000000000000
   0.000000000000000
   0.000000000000000
   0.000000000000000
   0.000000000000000
   0.000000000000000
   0.000000000000000
   0.000000000000000
   0.000000000000000
   0.000000000000000
   0.000000000000000
   0.000000000000000
   0.000000000000000
   0.000000000000000
   0.000000000000000
   0.000000000000000
   0.000000000000000
   0.000000000000000
   0.000000000000000
   0.000000000000000
   0.000000000000000
   0.000000000000000
   0.000000000000000
   0.000000000000000
   0.000000000000000
   0.000000000000000
   0.000000000000000
   0.000000000000000
   0.000000000000000
   0.000000000000000
   0.000000000000000
   0.000000000000000
   0.000000000000000
   0.000000000000000
   0.000000000000000
   0.000000000000000
   0.000000000000000
   0.000000000000000
   0.000000000000000
   0.000000000000000
   0.000000000000000
   0.000000000000000
   0.000000000000000
   0.000000000000000
   0.000000000000000
   0.000000000000000
   0.000000000000000
   0.000000000000000
   0.000000000000000
   0.000000000000000
   0.000000000000000
   0.000000000000000
   0.000000000000000
   0.000000000000000
   0.000000000000000
   0.000000000000000
   0.000000000000000
   0.000000000000000
   0.000000000000000
   0.000000000000000
   0.000000000000000
   0.000000000000000
   0.000000000000000
   0.000000000000000
   0.000000000000000
   0.000000000000000
   0.000000000000000
   0.000000000000000
   0.000000000000000
   0.000000000000000
   0.000000000000000
   0.000000000000000
   0.000000000000000
   0.000000000000000
   0.000000000000000
   0.000000000000000
   0.000000000000000
   0.000000000000000
   0.000000000000000
   0.000000000000000
   0.000000000000000
   0.000000000000000
   0.000000000000000
   0.000000000000000
   0.000000000000000
   0.000000000000000
   0.000000000000000
   0.000000000000000
   0.000000000000000
   0.000000000000000
   0.000000000000000
   0.000000000000000
   0.000000000000000
   0.000000000000000
   0.000000000000000
   0.000000000000000
   0.000000000000000
   0.000000000000000
   0.000000000000000
   0.000000000000000
   0.000000000000000
   0.000000000000000
   0.000000000000000
   0.000000000000000
   0.000000000000000
   0.000000000000000
   0.000000000000000
   0.000000000000000
   0.000000000000000
   0.000000000000000
   0.000000000000000
   0.000000000000000
   0.000000000000000
   0.000000000000000
   0.000000000000000
   0.000000000000000
   0.000000000000000
   0.000000000000000
   0.000000000000000
   0.000000000000000
   0.000000000000000
   0.000000000000000
   0.000000000000000
   0.000000000000000
   0.000000000000000
   0.000000000000000
   0.000000000000000
   0.000000000000000
   0.000000000000000
   0.000000000000000
   0.000000000000000
   0.000000000000000
   0.000000000000000
   0.000000000000000
   0.000000000000000
   0.000000000000000
   0.000000000000000
   0.000000000000000
   0.000000000000000
   0.000000000000000
   0.000000000000000
   0.000000000000000
   0.000000000000000
   0.000000000000000
   0.000000000000000
   0.000000000000000
   0.000000000000000
   0.000000000000000
   0.000000000000000
   0.000000000000000
   0.000000000000000
   0.000000000000000
   0.000000000000000
   0.000000000000000
   0.000000000000000
   0.000000000000000
   0.000000000000000